from sklearn.metrics import mean_absolute_error, mean_squared_error
import numpy as np

y_pred = lr.predict(X_test)

mae = mean_absolute_error(y_test, y_pred)
mse = mean_squared_error(y_test, y_pred)
rmse = np.sqrt(mse)

print(f"Mean Absolute Error (MAE): {mae}")
print(f"Mean Squared Error (MSE): {mse}")
print(f"Root Mean Squared Error (RMSE): {rmse}")

# Residuals
residuals = y_test - y_pred
plt.figure(figsize=(10,6))
sns.histplot(residuals, kde=True)
plt.title('Residuals')
plt.show()
